       N       E                     dE             d eps       ncg     rms          rms(c)
DAV:   1     0.339991283177E+04    0.33999E+04   -0.10817E+05 25032   0.183E+03
DAV:   2     0.281722273169E+03   -0.31182E+04   -0.29779E+04 25024   0.585E+02
DAV:   3    -0.376361010146E+03   -0.65808E+03   -0.61926E+03 29000   0.251E+02
DAV:   4    -0.432905005090E+03   -0.56544E+02   -0.54233E+02 31752   0.779E+01
DAV:   5    -0.435336943900E+03   -0.24319E+01   -0.23180E+01 31312   0.160E+01    0.881E+01
DAV:   6    -0.321896589290E+03    0.11344E+03   -0.35642E+02 37416   0.902E+01    0.494E+01
DAV:   7    -0.340562841754E+03   -0.18666E+02   -0.17115E+02 37480   0.871E+01    0.582E+01
DAV:   8    -0.322298592934E+03    0.18264E+02   -0.72223E+01 36048   0.405E+01    0.344E+01
DAV:   9    -0.318849793767E+03    0.34488E+01   -0.13632E+01 35792   0.171E+01    0.245E+01
DAV:  10    -0.320273770022E+03   -0.14240E+01   -0.58412E+00 34840   0.139E+01    0.215E+01
DAV:  11    -0.320577250456E+03   -0.30348E+00   -0.16186E+00 34528   0.740E+00    0.143E+01
DAV:  12    -0.320582951829E+03   -0.57014E-02   -0.71266E-01 35056   0.492E+00    0.972E+00
DAV:  13    -0.320728623782E+03   -0.14567E+00   -0.19230E-01 35064   0.279E+00    0.789E+00
DAV:  14    -0.320838096992E+03   -0.10947E+00   -0.31045E-01 36232   0.385E+00    0.463E+00
DAV:  15    -0.320879439940E+03   -0.41343E-01   -0.22354E-01 35456   0.295E+00    0.239E+00
DAV:  16    -0.320858259512E+03    0.21180E-01   -0.71655E-02 35520   0.150E+00    0.134E+00
DAV:  17    -0.320856589095E+03    0.16704E-02   -0.12625E-02 35248   0.667E-01    0.795E-01
DAV:  18    -0.320865819932E+03   -0.92308E-02   -0.62303E-03 35504   0.492E-01    0.505E-01
DAV:  19    -0.320867803387E+03   -0.19835E-02   -0.50492E-03 34536   0.439E-01    0.286E-01
DAV:  20    -0.320868666748E+03   -0.86336E-03   -0.16946E-03 34776   0.299E-01    0.246E-01
DAV:  21    -0.320868482587E+03    0.18416E-03   -0.36710E-04 33664   0.122E-01    0.197E-01
DAV:  22    -0.320866583223E+03    0.18994E-02   -0.91057E-04 36272   0.172E-01    0.131E-01
DAV:  23    -0.320867538174E+03   -0.95495E-03   -0.67460E-04 34272   0.117E-01    0.113E-01
DAV:  24    -0.320868223189E+03   -0.68501E-03   -0.94435E-04 35264   0.127E-01    0.838E-02
DAV:  25    -0.320869162014E+03   -0.93883E-03   -0.35891E-04 31528   0.794E-02    0.616E-02
DAV:  26    -0.320869926247E+03   -0.76423E-03   -0.47830E-04 34872   0.894E-02    0.445E-02
DAV:  27    -0.320870062110E+03   -0.13586E-03   -0.13885E-04 28664   0.506E-02    0.346E-02
DAV:  28    -0.320870037182E+03    0.24928E-04   -0.64178E-05 27496   0.337E-02    0.229E-02
DAV:  29    -0.320869924724E+03    0.11246E-03   -0.11546E-05 17552   0.164E-02    0.141E-02
DAV:  30    -0.320869923707E+03    0.10165E-05   -0.95872E-06 16552   0.159E-02
   1 F= -.32086992E+03 E0= -.32086992E+03  d E =-.320870E+03  mag=    11.9999
       N       E                     dE             d eps       ncg     rms          rms(c)
DAV:   1    -0.320861614205E+03    0.83105E-02   -0.41635E-01 27768   0.484E+00    0.324E-01
DAV:   2    -0.320871182742E+03   -0.95685E-02   -0.83243E-02 25512   0.102E+00    0.195E-01
DAV:   3    -0.320871036655E+03    0.14609E-03   -0.21446E-03 32792   0.194E-01    0.102E-01
DAV:   4    -0.320871138483E+03   -0.10183E-03   -0.20274E-04 35736   0.716E-02    0.677E-02
DAV:   5    -0.320871157718E+03   -0.19235E-04   -0.80509E-05 29744   0.510E-02    0.289E-02
DAV:   6    -0.320871206147E+03   -0.48429E-04   -0.11628E-05 18480   0.288E-02    0.186E-02
DAV:   7    -0.320871179369E+03    0.26778E-04   -0.16740E-05 16192   0.206E-02    0.130E-02
DAV:   8    -0.320871184690E+03   -0.53214E-05   -0.55335E-06 14384   0.118E-02
   2 F= -.32087118E+03 E0= -.32087118E+03  d E =-.126098E-02  mag=    12.0000
       N       E                     dE             d eps       ncg     rms          rms(c)
DAV:   1    -0.320870957877E+03    0.22149E-03   -0.14451E-02 27840   0.902E-01    0.605E-02
DAV:   2    -0.320871336170E+03   -0.37829E-03   -0.28973E-03 25592   0.190E-01    0.366E-02
DAV:   3    -0.320871295285E+03    0.40885E-04   -0.71055E-05 23848   0.354E-02    0.194E-02
DAV:   4    -0.320871309518E+03   -0.14233E-04   -0.58833E-06 15448   0.134E-02    0.134E-02
DAV:   5    -0.320871324278E+03   -0.14760E-04   -0.43401E-06 13760   0.111E-02    0.729E-03
DAV:   6    -0.320871330175E+03   -0.58963E-05   -0.17807E-06 13760   0.760E-03
   3 F= -.32087133E+03 E0= -.32087133E+03  d E =-.140647E-02  mag=    12.0000
       N       E                     dE             d eps       ncg     rms          rms(c)
DAV:   1    -0.320870055772E+03    0.12685E-02   -0.57848E-02 27464   0.180E+00    0.120E-01
DAV:   2    -0.320871455113E+03   -0.13993E-02   -0.11609E-02 25416   0.381E-01    0.721E-02
DAV:   3    -0.320871370124E+03    0.84988E-04   -0.30065E-04 31696   0.720E-02    0.383E-02
DAV:   4    -0.320871394116E+03   -0.23992E-04   -0.22866E-05 19696   0.261E-02    0.256E-02
DAV:   5    -0.320871419888E+03   -0.25772E-04   -0.18222E-05 15880   0.223E-02    0.150E-02
DAV:   6    -0.320871420710E+03   -0.82211E-06   -0.53755E-06 14072   0.139E-02
   4 F= -.32087142E+03 E0= -.32087142E+03  d E =-.149700E-02  mag=    12.0000
       N       E                     dE             d eps       ncg     rms          rms(c)
DAV:   1    -0.320868838886E+03    0.25810E-02   -0.20237E-01 27200   0.265E+00    0.191E-01
DAV:   2    -0.320871872545E+03   -0.30337E-02   -0.29581E-02 25808   0.588E-01    0.109E-01
DAV:   3    -0.320872037065E+03   -0.16452E-03   -0.63609E-04 32608   0.102E-01    0.553E-02
DAV:   4    -0.320871995136E+03    0.41929E-04   -0.44277E-05 23488   0.339E-02    0.400E-02
DAV:   5    -0.320872028126E+03   -0.32990E-04   -0.26505E-05 20776   0.301E-02    0.185E-02
DAV:   6    -0.320872005103E+03    0.23023E-04   -0.66778E-06 15160   0.190E-02    0.102E-02
DAV:   7    -0.320872016635E+03   -0.11532E-04   -0.33397E-06 14128   0.109E-02    0.687E-03
DAV:   8    -0.320872029430E+03   -0.12795E-04   -0.18394E-06 13800   0.646E-03    0.462E-03
DAV:   9    -0.320872025879E+03    0.35517E-05   -0.55755E-07 13616   0.402E-03
   5 F= -.32087203E+03 E0= -.32087203E+03  d E =-.605169E-03  mag=    12.0000
       N       E                     dE             d eps       ncg     rms          rms(c)
DAV:   1    -0.320846320024E+03    0.25709E-01   -0.16331E+00 27248   0.752E+00    0.543E-01
DAV:   2    -0.320871431989E+03   -0.25112E-01   -0.23783E-01 25752   0.167E+00    0.307E-01
DAV:   3    -0.320872134231E+03   -0.70224E-03   -0.51777E-03 32952   0.289E-01    0.155E-01
DAV:   4    -0.320872013178E+03    0.12105E-03   -0.39116E-04 36048   0.932E-02    0.109E-01
DAV:   5    -0.320872143032E+03   -0.12985E-03   -0.14994E-04 36072   0.783E-02    0.482E-02
DAV:   6    -0.320872037541E+03    0.10549E-03   -0.34559E-05 24640   0.498E-02    0.291E-02
DAV:   7    -0.320872110075E+03   -0.72534E-04   -0.21682E-05 18704   0.276E-02    0.162E-02
DAV:   8    -0.320872126111E+03   -0.16036E-04   -0.56912E-06 14960   0.132E-02    0.114E-02
DAV:   9    -0.320872115847E+03    0.10264E-04   -0.22532E-06 14416   0.101E-02    0.818E-03
DAV:  10    -0.320872127780E+03   -0.11932E-04   -0.23712E-06 14160   0.860E-03    0.597E-03
DAV:  11    -0.320872139375E+03   -0.11595E-04   -0.14725E-06 14000   0.573E-03    0.399E-03
DAV:  12    -0.320872143357E+03   -0.39816E-05   -0.71724E-07 13680   0.383E-03
   6 F= -.32087214E+03 E0= -.32087214E+03  d E =-.722647E-03  mag=    12.0000
       N       E                     dE             d eps       ncg     rms          rms(c)
DAV:   1    -0.320867851986E+03    0.42874E-02   -0.28554E-01 27152   0.314E+00    0.227E-01
DAV:   2    -0.320872502478E+03   -0.46505E-02   -0.41643E-02 25792   0.698E-01    0.130E-01
DAV:   3    -0.320872423703E+03    0.78775E-04   -0.88850E-04 32432   0.121E-01    0.651E-02
DAV:   4    -0.320872470940E+03   -0.47237E-04   -0.63027E-05 25664   0.412E-02    0.471E-02
DAV:   5    -0.320872462799E+03    0.81414E-05   -0.36010E-05 23536   0.353E-02    0.210E-02
DAV:   6    -0.320872482608E+03   -0.19809E-04   -0.76931E-06 15848   0.216E-02    0.112E-02
DAV:   7    -0.320872473513E+03    0.90943E-05   -0.43221E-06 14176   0.127E-02
   7 F= -.32087247E+03 E0= -.32087247E+03  d E =-.105280E-02  mag=    12.0000
       N       E                     dE             d eps       ncg     rms          rms(c)
DAV:   1    -0.320871345861E+03    0.11367E-02   -0.33017E-01 26896   0.320E+00    0.168E-01
DAV:   2    -0.320873599203E+03   -0.22533E-02   -0.22518E-02 25112   0.606E-01    0.111E-01
DAV:   3    -0.320873725413E+03   -0.12621E-03   -0.57988E-04 33952   0.121E-01    0.593E-02
DAV:   4    -0.320873571301E+03    0.15411E-03   -0.50681E-05 28328   0.447E-02    0.427E-02
DAV:   5    -0.320873676145E+03   -0.10484E-03   -0.49047E-05 26824   0.367E-02    0.172E-02
DAV:   6    -0.320873619246E+03    0.56899E-04   -0.78027E-06 14928   0.191E-02    0.928E-03
DAV:   7    -0.320873635817E+03   -0.16570E-04   -0.65891E-06 13928   0.122E-02    0.665E-03
DAV:   8    -0.320873648820E+03   -0.13003E-04   -0.23054E-06 13656   0.717E-03    0.367E-03
DAV:   9    -0.320873639909E+03    0.89107E-05   -0.37153E-07 13624   0.369E-03
   8 F= -.32087364E+03 E0= -.32087364E+03  d E =-.116640E-02  mag=    12.0000
       N       E                     dE             d eps       ncg     rms          rms(c)
DAV:   1    -0.320873554148E+03    0.94671E-04   -0.47923E-02 26864   0.122E+00    0.643E-02
DAV:   2    -0.320873902396E+03   -0.34825E-03   -0.32613E-03 25128   0.231E-01    0.418E-02
DAV:   3    -0.320873949281E+03   -0.46885E-04   -0.83569E-05 29808   0.461E-02    0.225E-02
DAV:   4    -0.320873893030E+03    0.56251E-04   -0.61148E-06 16008   0.178E-02    0.169E-02
DAV:   5    -0.320873932446E+03   -0.39415E-04   -0.75796E-06 13944   0.148E-02    0.851E-03
DAV:   6    -0.320873928286E+03    0.41595E-05   -0.33266E-06 13600   0.929E-03
   9 F= -.32087393E+03 E0= -.32087393E+03  d E =-.145477E-02  mag=    12.0000
       N       E                     dE             d eps       ncg     rms          rms(c)
DAV:   1    -0.320872842452E+03    0.10900E-02   -0.19145E-01 26864   0.244E+00    0.128E-01
DAV:   2    -0.320874155957E+03   -0.13135E-02   -0.13055E-02 25112   0.461E-01    0.834E-02
DAV:   3    -0.320874250536E+03   -0.94580E-04   -0.33849E-04 34112   0.920E-02    0.453E-02
DAV:   4    -0.320874135541E+03    0.11500E-03   -0.24842E-05 22232   0.337E-02    0.345E-02
DAV:   5    -0.320874218152E+03   -0.82611E-04   -0.42307E-05 23960   0.305E-02    0.146E-02
DAV:   6    -0.320874182354E+03    0.35798E-04   -0.49670E-06 14208   0.141E-02    0.749E-03
DAV:   7    -0.320874191017E+03   -0.86635E-05   -0.50663E-06 13888   0.101E-02
  10 F= -.32087419E+03 E0= -.32087419E+03  d E =-.171750E-02  mag=    12.0000
       N       E                     dE             d eps       ncg     rms          rms(c)
DAV:   1    -0.320873839129E+03    0.34322E-03   -0.15242E-01 26576   0.214E+00    0.134E-01
DAV:   2    -0.320874822879E+03   -0.98375E-03   -0.10867E-02 25200   0.457E-01    0.106E-01
DAV:   3    -0.320874884357E+03   -0.61479E-04   -0.30030E-04 35272   0.970E-02    0.627E-02
DAV:   4    -0.320874761627E+03    0.12273E-03   -0.62628E-05 31472   0.539E-02    0.513E-02
DAV:   5    -0.320874838538E+03   -0.76912E-04   -0.48024E-05 27328   0.380E-02    0.181E-02
DAV:   6    -0.320874822008E+03    0.16531E-04   -0.72337E-06 15440   0.170E-02    0.116E-02
DAV:   7    -0.320874810567E+03    0.11440E-04   -0.70630E-06 13992   0.121E-02    0.871E-03
DAV:   8    -0.320874809314E+03    0.12537E-05   -0.28705E-06 13760   0.902E-03
  11 F= -.32087481E+03 E0= -.32087481E+03  d E =-.618296E-03  mag=    12.0000
       N       E                     dE             d eps       ncg     rms          rms(c)
DAV:   1    -0.320874834357E+03   -0.23790E-04   -0.82997E-03 26592   0.500E-01    0.315E-02
DAV:   2    -0.320874913586E+03   -0.79229E-04   -0.59085E-04 25384   0.107E-01    0.252E-02
DAV:   3    -0.320874922902E+03   -0.93162E-05   -0.13306E-05 18136   0.221E-02    0.150E-02
DAV:   4    -0.320874892842E+03    0.30060E-04   -0.33199E-06 14424   0.139E-02    0.133E-02
DAV:   5    -0.320874903894E+03   -0.11052E-04   -0.32432E-06 13688   0.977E-03    0.587E-03
DAV:   6    -0.320874908868E+03   -0.49746E-05   -0.15009E-06 13808   0.554E-03
  12 F= -.32087491E+03 E0= -.32087491E+03  d E =-.717851E-03  mag=    12.0000
       N       E                     dE             d eps       ncg     rms          rms(c)
DAV:   1    -0.320874802588E+03    0.10131E-03   -0.33154E-02 26576   0.100E+00    0.625E-02
DAV:   2    -0.320875050607E+03   -0.24802E-03   -0.23682E-03 25424   0.215E-01    0.499E-02
DAV:   3    -0.320875073698E+03   -0.23091E-04   -0.59729E-05 26128   0.448E-02    0.291E-02
DAV:   4    -0.320875017734E+03    0.55964E-04   -0.10216E-05 18704   0.262E-02    0.259E-02
DAV:   5    -0.320875044420E+03   -0.26686E-04   -0.12410E-05 15072   0.185E-02    0.106E-02
DAV:   6    -0.320875052016E+03   -0.75963E-05   -0.44790E-06 14264   0.102E-02
  13 F= -.32087505E+03 E0= -.32087505E+03  d E =-.860999E-03  mag=    12.0000
       N       E                     dE             d eps       ncg     rms          rms(c)
DAV:   1    -0.320874262523E+03    0.78190E-03   -0.13254E-01 26568   0.199E+00    0.125E-01
DAV:   2    -0.320875127935E+03   -0.86541E-03   -0.94688E-03 25192   0.426E-01    0.999E-02
DAV:   3    -0.320875179800E+03   -0.51865E-04   -0.25995E-04 34856   0.896E-02    0.589E-02
DAV:   4    -0.320875065395E+03    0.11441E-03   -0.54571E-05 30136   0.506E-02    0.491E-02
DAV:   5    -0.320875135360E+03   -0.69965E-04   -0.43151E-05 26696   0.365E-02    0.177E-02
DAV:   6    -0.320875119411E+03    0.15949E-04   -0.71283E-06 15472   0.164E-02    0.117E-02
DAV:   7    -0.320875103014E+03    0.16397E-04   -0.67733E-06 13944   0.117E-02    0.899E-03
DAV:   8    -0.320875101612E+03    0.14021E-05   -0.28466E-06 13784   0.872E-03
  14 F= -.32087510E+03 E0= -.32087510E+03  d E =-.910595E-03  mag=    12.0000
       N       E                     dE             d eps       ncg     rms          rms(c)
DAV:   1    -0.320874825907E+03    0.27711E-03   -0.58506E-02 26576   0.132E+00    0.833E-02
DAV:   2    -0.320875082780E+03   -0.25687E-03   -0.41839E-03 25208   0.283E-01    0.661E-02
DAV:   3    -0.320875047542E+03    0.35238E-04   -0.11464E-04 31656   0.604E-02    0.383E-02
DAV:   4    -0.320875106249E+03   -0.58707E-04   -0.18079E-05 21184   0.340E-02    0.335E-02
DAV:   5    -0.320875054981E+03    0.51268E-04   -0.30615E-05 21800   0.253E-02    0.123E-02
DAV:   6    -0.320875053970E+03    0.10106E-05   -0.36946E-06 14128   0.125E-02
  15 F= -.32087505E+03 E0= -.32087505E+03  d E =-.862953E-03  mag=    12.0000
       N       E                     dE             d eps       ncg     rms          rms(c)
DAV:   1    -0.320874279807E+03    0.77517E-03   -0.13273E-01 27560   0.227E+00    0.122E-01
DAV:   2    -0.320875479333E+03   -0.11995E-02   -0.11910E-02 25024   0.433E-01    0.708E-02
DAV:   3    -0.320875460043E+03    0.19290E-04   -0.29633E-04 32896   0.805E-02    0.377E-02
DAV:   4    -0.320875520975E+03   -0.60932E-04   -0.20020E-05 19872   0.286E-02    0.268E-02
DAV:   5    -0.320875467930E+03    0.53044E-04   -0.16977E-05 16888   0.258E-02    0.152E-02
DAV:   6    -0.320875493905E+03   -0.25974E-04   -0.70318E-06 14624   0.169E-02    0.795E-03
DAV:   7    -0.320875501442E+03   -0.75369E-05   -0.23888E-06 13912   0.760E-03
  16 F= -.32087550E+03 E0= -.32087550E+03  d E =-.447471E-03  mag=    12.0000
       N       E                     dE             d eps       ncg     rms          rms(c)
DAV:   1    -0.320869377573E+03    0.61163E-02   -0.73794E-01 27496   0.537E+00    0.288E-01
DAV:   2    -0.320875829362E+03   -0.64518E-02   -0.66254E-02 25024   0.102E+00    0.168E-01
DAV:   3    -0.320875903999E+03   -0.74637E-04   -0.16518E-03 32584   0.191E-01    0.901E-02
DAV:   4    -0.320876055707E+03   -0.15171E-03   -0.13908E-04 33952   0.691E-02    0.619E-02
DAV:   5    -0.320875938414E+03    0.11729E-03   -0.77037E-05 29992   0.560E-02    0.300E-02
DAV:   6    -0.320876029148E+03   -0.90734E-04   -0.18988E-05 21216   0.348E-02    0.190E-02
DAV:   7    -0.320876008656E+03    0.20492E-04   -0.11384E-05 15448   0.181E-02    0.122E-02
DAV:   8    -0.320875976897E+03    0.31760E-04   -0.48053E-06 14664   0.104E-02    0.947E-03
DAV:   9    -0.320875988968E+03   -0.12072E-04   -0.18686E-06 14336   0.766E-03    0.694E-03
DAV:  10    -0.320875981981E+03    0.69874E-05   -0.25454E-06 14288   0.800E-03
  17 F= -.32087598E+03 E0= -.32087598E+03  d E =-.928011E-03  mag=    12.0000
       N       E                     dE             d eps       ncg     rms          rms(c)
DAV:   1    -0.320874097725E+03    0.18912E-02   -0.20829E-01 27456   0.297E+00    0.165E-01
DAV:   2    -0.320876243462E+03   -0.21457E-02   -0.22627E-02 25024   0.567E-01    0.975E-02
DAV:   3    -0.320876362425E+03   -0.11896E-03   -0.57484E-04 32824   0.110E-01    0.526E-02
DAV:   4    -0.320876417710E+03   -0.55286E-04   -0.42310E-05 24976   0.397E-02    0.383E-02
DAV:   5    -0.320876361622E+03    0.56088E-04   -0.29637E-05 21760   0.318E-02    0.170E-02
DAV:   6    -0.320876385317E+03   -0.23695E-04   -0.72303E-06 15528   0.186E-02    0.104E-02
DAV:   7    -0.320876385398E+03   -0.81011E-07   -0.38625E-06 14376   0.112E-02
  18 F= -.32087639E+03 E0= -.32087639E+03  d E =-.403417E-03  mag=    12.0000
       N       E                     dE             d eps       ncg     rms          rms(c)
DAV:   1    -0.320873710564E+03    0.26748E-02   -0.24931E-01 27464   0.327E+00    0.180E-01
DAV:   2    -0.320876326538E+03   -0.26160E-02   -0.27046E-02 25024   0.623E-01    0.108E-01
DAV:   3    -0.320876453733E+03   -0.12720E-03   -0.68438E-04 33000   0.121E-01    0.584E-02
DAV:   4    -0.320876522806E+03   -0.69073E-04   -0.51361E-05 25832   0.444E-02    0.429E-02
DAV:   5    -0.320876460572E+03    0.62234E-04   -0.34644E-05 23856   0.350E-02    0.191E-02
DAV:   6    -0.320876492268E+03   -0.31696E-04   -0.77813E-06 16488   0.194E-02    0.121E-02
DAV:   7    -0.320876489085E+03    0.31834E-05   -0.45447E-06 14600   0.124E-02
  19 F= -.32087649E+03 E0= -.32087649E+03  d E =-.507104E-03  mag=    12.0000
       N       E                     dE             d eps       ncg     rms          rms(c)
DAV:   1    -0.320874383255E+03    0.21090E-02   -0.22405E-01 27512   0.318E+00    0.179E-01
DAV:   2    -0.320876923198E+03   -0.25399E-02   -0.25707E-02 25024   0.595E-01    0.105E-01
DAV:   3    -0.320877026234E+03   -0.10304E-03   -0.61014E-04 32496   0.114E-01    0.571E-02
DAV:   4    -0.320876966020E+03    0.60214E-04   -0.47301E-05 25384   0.431E-02    0.441E-02
DAV:   5    -0.320877038534E+03   -0.72514E-04   -0.34462E-05 24384   0.339E-02    0.185E-02
DAV:   6    -0.320877013848E+03    0.24686E-04   -0.77442E-06 16480   0.163E-02    0.115E-02
DAV:   7    -0.320876997899E+03    0.15948E-04   -0.44501E-06 14464   0.106E-02    0.915E-03
DAV:   8    -0.320877003083E+03   -0.51842E-05   -0.18894E-06 13992   0.667E-03
  20 F= -.32087700E+03 E0= -.32087700E+03  d E =-.513998E-03  mag=    12.0000
       N       E                     dE             d eps       ncg     rms          rms(c)
DAV:   1    -0.320869871209E+03    0.71267E-02   -0.62708E-01 27544   0.532E+00    0.300E-01
DAV:   2    -0.320877016591E+03   -0.71454E-02   -0.71881E-02 25024   0.994E-01    0.176E-01
DAV:   3    -0.320877248754E+03   -0.23216E-03   -0.16949E-03 32784   0.192E-01    0.944E-02
DAV:   4    -0.320877163434E+03    0.85321E-04   -0.14808E-04 35768   0.738E-02    0.701E-02
DAV:   5    -0.320877267693E+03   -0.10426E-03   -0.71250E-05 33136   0.533E-02    0.285E-02
DAV:   6    -0.320877229228E+03    0.38465E-04   -0.14928E-05 18664   0.269E-02    0.188E-02
DAV:   7    -0.320877217101E+03    0.12127E-04   -0.91869E-06 15152   0.161E-02    0.124E-02
DAV:   8    -0.320877225477E+03   -0.83755E-05   -0.35556E-06 14592   0.865E-03
  21 F= -.32087723E+03 E0= -.32087723E+03  d E =-.736392E-03  mag=    12.0000
       N       E                     dE             d eps       ncg     rms          rms(c)
DAV:   1    -0.320876473829E+03    0.74327E-03   -0.66204E-02 27472   0.173E+00    0.974E-02
DAV:   2    -0.320877235811E+03   -0.76198E-03   -0.76388E-03 25024   0.324E-01    0.571E-02
DAV:   3    -0.320877225444E+03    0.10366E-04   -0.17944E-04 30520   0.620E-02    0.304E-02
DAV:   4    -0.320877269376E+03   -0.43932E-04   -0.13112E-05 19392   0.234E-02    0.228E-02
DAV:   5    -0.320877216560E+03    0.52816E-04   -0.84394E-06 14928   0.181E-02    0.977E-03
DAV:   6    -0.320877233893E+03   -0.17333E-04   -0.37941E-06 13584   0.105E-02    0.528E-03
DAV:   7    -0.320877243566E+03   -0.96732E-05   -0.94349E-07 13040   0.491E-03
  22 F= -.32087724E+03 E0= -.32087724E+03  d E =-.754481E-03  mag=    12.0000
       N       E                     dE             d eps       ncg     rms          rms(c)
DAV:   1    -0.320876216155E+03    0.10177E-02   -0.13145E-01 26760   0.226E+00    0.126E-01
DAV:   2    -0.320877446201E+03   -0.12300E-02   -0.13719E-02 25192   0.463E-01    0.764E-02
DAV:   3    -0.320877484021E+03   -0.37821E-04   -0.35564E-04 32464   0.850E-02    0.421E-02
DAV:   4    -0.320877491445E+03   -0.74238E-05   -0.24214E-05 21024   0.313E-02    0.332E-02
DAV:   5    -0.320877480733E+03    0.10712E-04   -0.33624E-05 22656   0.299E-02    0.149E-02
DAV:   6    -0.320877478699E+03    0.20337E-05   -0.49970E-06 14824   0.159E-02
  23 F= -.32087748E+03 E0= -.32087748E+03  d E =-.235133E-03  mag=    12.0000
       N       E                     dE             d eps       ncg     rms          rms(c)
DAV:   1    -0.320876731684E+03    0.74905E-03   -0.81997E-02 26760   0.178E+00    0.100E-01
DAV:   2    -0.320877483467E+03   -0.75178E-03   -0.85761E-03 25200   0.366E-01    0.606E-02
DAV:   3    -0.320877507511E+03   -0.24044E-04   -0.22079E-04 31416   0.669E-02    0.341E-02
DAV:   4    -0.320877511208E+03   -0.36969E-05   -0.15678E-05 18888   0.248E-02    0.267E-02
DAV:   5    -0.320877502149E+03    0.90592E-05   -0.16356E-05 16208   0.237E-02    0.152E-02
DAV:   6    -0.320877498707E+03    0.34423E-05   -0.74849E-06 14728   0.158E-02
  24 F= -.32087750E+03 E0= -.32087750E+03  d E =-.255141E-03  mag=    12.0000
       N       E                     dE             d eps       ncg     rms          rms(c)
DAV:   1    -0.320876722101E+03    0.78005E-03   -0.14148E-01 26472   0.212E+00    0.126E-01
DAV:   2    -0.320877496652E+03   -0.77455E-03   -0.11807E-02 25152   0.463E-01    0.843E-02
DAV:   3    -0.320877490842E+03    0.58102E-05   -0.35779E-04 34152   0.922E-02    0.462E-02
DAV:   4    -0.320877618830E+03   -0.12799E-03   -0.39596E-05 24120   0.456E-02    0.371E-02
DAV:   5    -0.320877501170E+03    0.11766E-03   -0.39301E-05 22808   0.304E-02    0.166E-02
DAV:   6    -0.320877520609E+03   -0.19438E-04   -0.46880E-06 15016   0.157E-02    0.108E-02
DAV:   7    -0.320877519010E+03    0.15987E-05   -0.45843E-06 14304   0.116E-02
  25 F= -.32087752E+03 E0= -.32087752E+03  d E =-.203033E-04  mag=    12.0000
       N       E                     dE             d eps       ncg     rms          rms(c)
DAV:   1    -0.320877223093E+03    0.29752E-03   -0.45228E-02 26376   0.120E+00    0.715E-02
DAV:   2    -0.320877418738E+03   -0.19564E-03   -0.38054E-03 25184   0.264E-01    0.484E-02
DAV:   3    -0.320877405039E+03    0.13699E-04   -0.11162E-04 30232   0.530E-02    0.267E-02
DAV:   4    -0.320877484920E+03   -0.79882E-04   -0.12706E-05 18576   0.273E-02    0.217E-02
DAV:   5    -0.320877414152E+03    0.70769E-04   -0.10966E-05 14496   0.181E-02    0.107E-02
DAV:   6    -0.320877410809E+03    0.33426E-05   -0.50759E-06 14112   0.111E-02
  26 F= -.32087741E+03 E0= -.32087741E+03  d E =0.878974E-04  mag=    12.0000
       N       E                     dE             d eps       ncg     rms          rms(c)
DAV:   1    -0.320876635261E+03    0.77889E-03   -0.13926E-01 26832   0.199E+00    0.110E-01
DAV:   2    -0.320877440951E+03   -0.80569E-03   -0.10165E-02 25328   0.414E-01    0.710E-02
DAV:   3    -0.320877383074E+03    0.57877E-04   -0.27338E-04 34200   0.831E-02    0.380E-02
DAV:   4    -0.320877533439E+03   -0.15036E-03   -0.21294E-05 20984   0.340E-02    0.344E-02
DAV:   5    -0.320877450289E+03    0.83150E-04   -0.20859E-05 16672   0.233E-02    0.161E-02
DAV:   6    -0.320877439351E+03    0.10939E-04   -0.88238E-06 15664   0.139E-02    0.961E-03
DAV:   7    -0.320877460813E+03   -0.21462E-04   -0.22598E-06 13944   0.791E-03    0.615E-03
DAV:   8    -0.320877453623E+03    0.71894E-05   -0.16645E-06 13696   0.617E-03
  27 F= -.32087745E+03 E0= -.32087745E+03  d E =-.428141E-04  mag=    12.0000
       N       E                     dE             d eps       ncg     rms          rms(c)
DAV:   1    -0.320877310110E+03    0.15070E-03   -0.23074E-02 26744   0.811E-01    0.450E-02
DAV:   2    -0.320877406808E+03   -0.96698E-04   -0.16891E-03 25408   0.169E-01    0.293E-02
DAV:   3    -0.320877373739E+03    0.33069E-04   -0.41809E-05 23664   0.342E-02    0.159E-02
DAV:   4    -0.320877435483E+03   -0.61744E-04   -0.50976E-06 14960   0.159E-02    0.145E-02
DAV:   5    -0.320877418664E+03    0.16820E-04   -0.37329E-06 13568   0.941E-03    0.717E-03
DAV:   6    -0.320877401324E+03    0.17339E-04   -0.20908E-06 13488   0.628E-03    0.459E-03
DAV:   7    -0.320877406825E+03   -0.55004E-05   -0.65204E-07 13416   0.424E-03
  28 F= -.32087741E+03 E0= -.32087741E+03  d E =0.398451E-05  mag=    12.0000
       N       E                     dE             d eps       ncg     rms          rms(c)
DAV:   1    -0.320876981502E+03    0.41982E-03   -0.52786E-02 26656   0.137E+00    0.813E-02
DAV:   2    -0.320877463827E+03   -0.48232E-03   -0.55875E-03 25280   0.296E-01    0.536E-02
DAV:   3    -0.320877466789E+03   -0.29621E-05   -0.15159E-04 29568   0.583E-02    0.287E-02
DAV:   4    -0.320877522511E+03   -0.55722E-04   -0.12088E-05 18696   0.235E-02    0.218E-02
DAV:   5    -0.320877462470E+03    0.60041E-04   -0.83277E-06 14448   0.174E-02    0.116E-02
DAV:   6    -0.320877466632E+03   -0.41626E-05   -0.44470E-06 13816   0.109E-02
  29 F= -.32087747E+03 E0= -.32087747E+03  d E =-.598077E-04  mag=    12.0000
       N       E                     dE             d eps       ncg     rms          rms(c)
DAV:   1    -0.320875549047E+03    0.19134E-02   -0.17636E-01 26688   0.249E+00    0.149E-01
DAV:   2    -0.320877335997E+03   -0.17870E-02   -0.18721E-02 25280   0.541E-01    0.977E-02
DAV:   3    -0.320877361263E+03   -0.25265E-04   -0.51347E-04 34528   0.106E-01    0.529E-02
DAV:   4    -0.320877462360E+03   -0.10110E-03   -0.40260E-05 23672   0.408E-02    0.402E-02
DAV:   5    -0.320877347964E+03    0.11440E-03   -0.35536E-05 22856   0.317E-02    0.198E-02
DAV:   6    -0.320877377612E+03   -0.29648E-04   -0.61217E-06 15520   0.163E-02    0.124E-02
DAV:   7    -0.320877360386E+03    0.17226E-04   -0.48660E-06 14168   0.116E-02    0.103E-02
DAV:   8    -0.320877352194E+03    0.81914E-05   -0.24380E-06 13888   0.809E-03
  30 F= -.32087735E+03 E0= -.32087735E+03  d E =0.546306E-04  mag=    12.0000
       N       E                     dE             d eps       ncg     rms          rms(c)
DAV:   1    -0.320877030786E+03    0.32960E-03   -0.34056E-02 27128   0.107E+00    0.665E-02
DAV:   2    -0.320877409505E+03   -0.37872E-03   -0.38177E-03 25304   0.226E-01    0.422E-02
DAV:   3    -0.320877354375E+03    0.55131E-04   -0.99566E-05 25808   0.452E-02    0.227E-02
DAV:   4    -0.320877406588E+03   -0.52214E-04   -0.89570E-06 17160   0.185E-02    0.194E-02
DAV:   5    -0.320877370144E+03    0.36444E-04   -0.69274E-06 14368   0.132E-02    0.102E-02
DAV:   6    -0.320877362909E+03    0.72352E-05   -0.38590E-06 13992   0.844E-03
  31 F= -.32087736E+03 E0= -.32087736E+03  d E =-.107151E-04  mag=    12.0000
